H5 outer H2 scan                                                        
Scan      RMP2-FC                                                     Aug-CC-pVDZ         
Number of atoms                            I                5
Info1-9                                    I   N=           9
          37          31           0           0           0         110
           8           2           1
Charge                                     I                1
Multiplicity                               I                1
Number of electrons                        I                4
Number of alpha electrons                  I                2
Number of beta electrons                   I                2
Number of basis functions                  I               45
Number of independent functions            I               45
Number of point charges in /Mol/           I                0
Number of translation vectors              I                0
Atomic numbers                             I   N=           5
           1           1           1           1           1
Nuclear charges                            R   N=           5
  1.00000000E+00  1.00000000E+00  1.00000000E+00  1.00000000E+00  1.00000000E+00
Current cartesian coordinates              R   N=          15
  0.00000000E+00  0.00000000E+00  0.00000000E+00  3.79970098E+00  0.00000000E+00
  9.44863066E-01  0.00000000E+00  0.00000000E+00  1.88972613E+00  7.59940197E+00
  9.44863066E-01  9.44863066E-01  7.59940197E+00 -9.44863066E-01  9.44863066E-01
Force Field                                I                0
Int Atom Types                             I   N=           5
           0           0           0           0           0
MM charges                                 R   N=           5
  0.00000000E+00  0.00000000E+00  0.00000000E+00  0.00000000E+00  0.00000000E+00
Integer atomic weights                     I   N=           5
           1           1           1           1           1
Real atomic weights                        R   N=           5
  1.00782504E+00  1.00782504E+00  1.00782504E+00  1.00782504E+00  1.00782504E+00
Atom fragment info                         I   N=           5
           0           0           0           0           0
Atom residue num                           I   N=           5
           0           0           0           0           0
Nuclear spins                              I   N=           5
           1           1           1           1           1
Nuclear ZEff                               R   N=           5
 -1.00000000E+00 -1.00000000E+00 -1.00000000E+00 -1.00000000E+00 -1.00000000E+00
Nuclear ZNuc                               R   N=           5
  1.00000000E+00  1.00000000E+00  1.00000000E+00  1.00000000E+00  1.00000000E+00
Nuclear QMom                               R   N=           5
  0.00000000E+00  0.00000000E+00  0.00000000E+00  0.00000000E+00  0.00000000E+00
Nuclear GFac                               R   N=           5
  2.79284600E+00  2.79284600E+00  2.79284600E+00  2.79284600E+00  2.79284600E+00
MicOpt                                     I   N=           5
          -1          -1          -1          -1          -1
Number of contracted shells                I               25
Number of primitive shells                 I               35
Pure/Cartesian d shells                    I                0
Pure/Cartesian f shells                    I                0
Highest angular momentum                   I                1
Largest degree of contraction              I                3
Shell types                                I   N=          25
           0           0           0           1           1           0
           0           0           1           1           0           0
           0           1           1           0           0           0
           1           1           0           0           0           1
           1
Number of primitives per shell             I   N=          25
           3           1           1           1           1           3
           1           1           1           1           3           1
           1           1           1           3           1           1
           1           1           3           1           1           1
           1
Shell to atom map                          I   N=          25
           1           1           1           1           1           2
           2           2           2           2           3           3
           3           3           3           4           4           4
           4           4           5           5           5           5
           5
Primitive exponents                        R   N=          35
  1.30100000E+01  1.96200000E+00  4.44600000E-01  1.22000000E-01  2.97400000E-02
  7.27000000E-01  1.41000000E-01  1.30100000E+01  1.96200000E+00  4.44600000E-01
  1.22000000E-01  2.97400000E-02  7.27000000E-01  1.41000000E-01  1.30100000E+01
  1.96200000E+00  4.44600000E-01  1.22000000E-01  2.97400000E-02  7.27000000E-01
  1.41000000E-01  1.30100000E+01  1.96200000E+00  4.44600000E-01  1.22000000E-01
  2.97400000E-02  7.27000000E-01  1.41000000E-01  1.30100000E+01  1.96200000E+00
  4.44600000E-01  1.22000000E-01  2.97400000E-02  7.27000000E-01  1.41000000E-01
Contraction coefficients                   R   N=          35
  3.34987264E-02  2.34800801E-01  8.13682958E-01  1.00000000E+00  1.00000000E+00
  1.00000000E+00  1.00000000E+00  3.34987264E-02  2.34800801E-01  8.13682958E-01
  1.00000000E+00  1.00000000E+00  1.00000000E+00  1.00000000E+00  3.34987264E-02
  2.34800801E-01  8.13682958E-01  1.00000000E+00  1.00000000E+00  1.00000000E+00
  1.00000000E+00  3.34987264E-02  2.34800801E-01  8.13682958E-01  1.00000000E+00
  1.00000000E+00  1.00000000E+00  1.00000000E+00  3.34987264E-02  2.34800801E-01
  8.13682958E-01  1.00000000E+00  1.00000000E+00  1.00000000E+00  1.00000000E+00
Coordinates of each shell                  R   N=          75
  0.00000000E+00  0.00000000E+00  0.00000000E+00  0.00000000E+00  0.00000000E+00
  0.00000000E+00  0.00000000E+00  0.00000000E+00  0.00000000E+00  0.00000000E+00
  0.00000000E+00  0.00000000E+00  0.00000000E+00  0.00000000E+00  0.00000000E+00
  3.79970098E+00  0.00000000E+00  9.44863066E-01  3.79970098E+00  0.00000000E+00
  9.44863066E-01  3.79970098E+00  0.00000000E+00  9.44863066E-01  3.79970098E+00
  0.00000000E+00  9.44863066E-01  3.79970098E+00  0.00000000E+00  9.44863066E-01
  0.00000000E+00  0.00000000E+00  1.88972613E+00  0.00000000E+00  0.00000000E+00
  1.88972613E+00  0.00000000E+00  0.00000000E+00  1.88972613E+00  0.00000000E+00
  0.00000000E+00  1.88972613E+00  0.00000000E+00  0.00000000E+00  1.88972613E+00
  7.59940197E+00  9.44863066E-01  9.44863066E-01  7.59940197E+00  9.44863066E-01
  9.44863066E-01  7.59940197E+00  9.44863066E-01  9.44863066E-01  7.59940197E+00
  9.44863066E-01  9.44863066E-01  7.59940197E+00  9.44863066E-01  9.44863066E-01
  7.59940197E+00 -9.44863066E-01  9.44863066E-01  7.59940197E+00 -9.44863066E-01
  9.44863066E-01  7.59940197E+00 -9.44863066E-01  9.44863066E-01  7.59940197E+00
 -9.44863066E-01  9.44863066E-01  7.59940197E+00 -9.44863066E-01  9.44863066E-01
Constraint Structure                       R   N=          15
  0.00000000E+00  0.00000000E+00  0.00000000E+00  3.79970098E+00  0.00000000E+00
  9.44863066E-01  0.00000000E+00  0.00000000E+00  1.88972613E+00  7.59940197E+00
  9.44863066E-01  9.44863066E-01  7.59940197E+00 -9.44863066E-01  9.44863066E-01
Num ILSW                                   I              100
ILSW                                       I   N=         100
           0           0           0           0           2           0
           0           0           0           0           0          -1
           0           0           0           0           0           0
           0           0           0           0           0           0
           1           1           0           0           0           0
           0           0      100000           0          -1           0
           0           0           0           0           0           0
           0           0           0           1           0           0
           0           0           1           0           0           0
           0           0           4          41           0           0
           0           0           0           0           0           0
           0           0           0           5           0           0
           0           0           0           0           0           0
           0           0           0           0           0           0
           0           0           0           0           0           0
           0           0           0           0           0           0
           0           0           0           0
Num RLSW                                   I               41
RLSW                                       R   N=          41
  1.00000000E+00  1.00000000E+00  1.00000000E+00  1.00000000E+00  1.00000000E+00
  0.00000000E+00  0.00000000E+00  1.00000000E+00  0.00000000E+00  0.00000000E+00
  0.00000000E+00  0.00000000E+00  1.00000000E+00  0.00000000E+00  0.00000000E+00
  0.00000000E+00  0.00000000E+00  1.00000000E+00  0.00000000E+00  0.00000000E+00
  0.00000000E+00  0.00000000E+00  1.00000000E+00  0.00000000E+00  0.00000000E+00
  0.00000000E+00  0.00000000E+00  1.00000000E+00  0.00000000E+00  0.00000000E+00
  0.00000000E+00  0.00000000E+00  1.00000000E+00  0.00000000E+00  0.00000000E+00
  0.00000000E+00  0.00000000E+00  0.00000000E+00  1.00000000E+00  1.00000000E+00
  0.00000000E+00
MxBond                                     I                1
NBond                                      I   N=           5
           0           0           0           0           0
IBond                                      I   N=           5
           0           0           0           0           0
RBond                                      R   N=           5
  0.00000000E+00  0.00000000E+00  0.00000000E+00  0.00000000E+00  0.00000000E+00
Virial Ratio                               R      2.285667002324370E+00
SCF Energy                                 R     -2.281234433663117E+00
MP2 Energy                                 R     -2.345379875511203E+00
Total Energy                               R     -2.345379875511203E+00
Post-SCF wavefunction norm                 R      1.017522288854879E+00
RMS Density                                R      9.991409787163388E-09
Job Status                                 I                1
Nuclear derivative order                   I                0
External E-field                           R   N=          35
  0.00000000E+00  0.00000000E+00  0.00000000E+00  0.00000000E+00  0.00000000E+00
  0.00000000E+00  0.00000000E+00  0.00000000E+00  0.00000000E+00  0.00000000E+00
  0.00000000E+00  0.00000000E+00  0.00000000E+00  0.00000000E+00  0.00000000E+00
  0.00000000E+00  0.00000000E+00  0.00000000E+00  0.00000000E+00  0.00000000E+00
  0.00000000E+00  0.00000000E+00  0.00000000E+00  0.00000000E+00  0.00000000E+00
  0.00000000E+00  0.00000000E+00  0.00000000E+00  0.00000000E+00  0.00000000E+00
  0.00000000E+00  0.00000000E+00  0.00000000E+00  0.00000000E+00  0.00000000E+00
IOpCl                                      I                0
IROHF                                      I                0
Alpha Orbital Energies                     R   N=          45
 -4.57890001E-01 -4.12483747E-01 -3.22985560E-01 -3.22985555E-01 -2.78525446E-01
 -3.65035939E-02 -1.73244839E-02 -1.73244816E-02 -1.59386737E-02  1.09944076E-02
  8.58451528E-02  8.58451552E-02  8.61419328E-02  1.38708644E-01  1.39132070E-01
  1.42038113E-01  1.42038115E-01  1.42293870E-01  1.45475001E-01  1.45475002E-01
  1.45511208E-01  2.54820602E-01  2.55454893E-01  2.59486543E-01  2.59486546E-01
  5.68577150E-01  5.83289982E-01  5.85459960E-01  5.85459967E-01  6.63500415E-01
  1.53566052E+00  1.53566053E+00  1.53665235E+00  1.54982153E+00  1.55022103E+00
  1.55172836E+00  1.55172836E+00  1.55190002E+00  1.55539454E+00  1.55539454E+00
  1.55578348E+00  1.62955228E+00  1.67723030E+00  1.68262579E+00  1.68262579E+00
Alpha MO coefficients                      R   N=        2025
  2.40254709E-01  1.23424782E-01  7.76566606E-03  6.06110458E-03 -4.12239931E-16
  1.42214106E-02  1.83284533E-02 -4.74900564E-16  2.07782601E-02  1.91448864E-01
  1.34670016E-01 -3.24445000E-02 -2.05127655E-16 -5.09727398E-16  2.00589891E-16
  2.28477769E-15  1.12165925E-14 -7.83904215E-15  2.40254709E-01  1.23424782E-01
  7.76566606E-03  6.06110458E-03 -5.26851042E-16 -1.42214106E-02  1.83284533E-02
 -9.55474186E-16 -2.07782601E-02  2.40254709E-01  1.23424782E-01  7.76566606E-03
 -6.06110458E-03 -1.42214106E-02  1.80228192E-16 -1.83284533E-02 -2.07782601E-02
  6.48052712E-16  2.40254709E-01  1.23424782E-01  7.76566606E-03 -6.06110458E-03
  1.42214106E-02  2.02238452E-16 -1.83284533E-02  2.07782601E-02  2.86490547E-16
  2.72197176E-01  1.22870687E-01  7.18125602E-04  4.75463031E-03 -6.78449350E-17
  1.57416809E-02  2.02095978E-03  1.83383347E-15  1.65645764E-02  1.54551567E-15
 -3.97516577E-15  1.00707919E-14 -1.55492928E-02  3.53399277E-16 -2.42722098E-16
 -9.54125306E-02 -1.14048750E-14  2.16230513E-15  2.72197176E-01  1.22870687E-01
  7.18125602E-04  4.75463031E-03  1.29542857E-16 -1.57416809E-02  2.02095978E-03
  9.08483590E-16 -1.65645764E-02 -2.72197176E-01 -1.22870687E-01 -7.18125602E-04
  4.75463031E-03  1.57416809E-02  1.28099606E-16  2.02095978E-03  1.65645764E-02
 -1.72136422E-16 -2.72197176E-01 -1.22870687E-01 -7.18125602E-04  4.75463031E-03
 -1.57416809E-02  3.42350781E-16  2.02095978E-03 -1.65645764E-02 -1.23681732E-15
 -1.42555122E-01 -1.14668413E-01 -2.34307865E-02  7.38450209E-03 -1.75971548E-16
 -7.41344642E-03  9.12868759E-03  1.82517906E-15 -9.00240174E-03  5.11449561E-01
  5.45715669E-01  1.02993531E-01  2.44119754E-16  4.20201555E-16  1.08173766E-16
 -1.89910151E-15 -1.52010677E-14 -7.85808039E-16 -1.42555122E-01 -1.14668413E-01
 -2.34307865E-02  7.38450209E-03 -2.96472364E-16  7.41344642E-03  9.12868759E-03
  1.99709721E-15  9.00240174E-03 -1.42555122E-01 -1.14668413E-01 -2.34307865E-02
 -7.38450209E-03  7.41344642E-03 -1.79112735E-16 -9.12868759E-03  9.00240174E-03
 -3.47864555E-16 -1.42555122E-01 -1.14668413E-01 -2.34307865E-02 -7.38450209E-03
 -7.41344642E-03  1.06444860E-16 -9.12868759E-03 -9.00240174E-03 -3.49988893E-16
 -9.52730330E-02 -1.99329470E-01 -9.50183663E-01 -1.56137868E-04  1.49273108E-03
  7.36119207E-03 -3.97483838E-02  2.48305271E-02  3.20415638E-02 -6.37496519E-15
 -1.43039678E-14  1.53422909E-13 -1.53483592E-16  1.04242427E-02  6.67784126E-03
 -2.71869272E-15  1.51797624E-01  9.72425974E-02  9.52730330E-02  1.99329470E-01
  9.50183663E-01  1.56137868E-04  1.49273108E-03  7.36119207E-03  3.97483838E-02
  2.48305271E-02  3.20415638E-02  1.48723095E-01  3.11157258E-01  1.48325555E+00
 -2.43734310E-04  1.14909669E-02  9.56253751E-04 -6.20480159E-02  5.00175170E-02
  1.59066056E-02 -1.48723095E-01 -3.11157258E-01 -1.48325555E+00  2.43734310E-04
  1.14909669E-02  9.56253751E-04  6.20480159E-02  5.00175170E-02  1.59066056E-02
  1.48723095E-01  3.11157258E-01  1.48325555E+00  2.43734310E-04  9.56253751E-04
 -1.14909669E-02  6.20480159E-02  1.59066056E-02 -5.00175170E-02 -3.63147257E-15
 -1.12534866E-14  1.26790325E-13  7.85826613E-16  6.67784126E-03 -1.04242427E-02
 -1.55491994E-14  9.72425974E-02 -1.51797624E-01 -1.48723095E-01 -3.11157258E-01
 -1.48325555E+00 -2.43734310E-04  9.56253751E-04 -1.14909669E-02 -6.20480159E-02
  1.59066056E-02 -5.00175170E-02  9.52730330E-02  1.99329470E-01  9.50183663E-01
 -1.56137868E-04  7.36119207E-03 -1.49273108E-03 -3.97483838E-02  3.20415638E-02
 -2.48305271E-02 -9.52730330E-02 -1.99329470E-01 -9.50183663E-01  1.56137868E-04
  7.36119207E-03 -1.49273108E-03  3.97483838E-02  3.20415638E-02 -2.48305271E-02
 -4.87365337E-02 -2.00909725E-01  2.56033669E-01 -4.03226472E-03 -4.22710520E-17
 -7.39769466E-03 -4.06593276E-03 -8.90554815E-16  2.73363162E-03 -1.02704380E-01
 -4.15148206E-01  6.77495044E-01  1.16732958E-15  4.16877959E-17 -2.82628369E-16
 -1.34215599E-14 -7.36727729E-15  8.70458285E-15 -4.87365337E-02 -2.00909725E-01
  2.56033669E-01 -4.03226472E-03 -3.88834148E-17  7.39769466E-03 -4.06593276E-03
 -1.05771551E-15 -2.73363162E-03 -4.87365337E-02 -2.00909725E-01  2.56033669E-01
  4.03226472E-03  7.39769466E-03  8.65371858E-18  4.06593276E-03 -2.73363162E-03
 -7.57086777E-16 -4.87365337E-02 -2.00909725E-01  2.56033669E-01  4.03226472E-03
 -7.39769466E-03 -1.23675380E-16  4.06593276E-03  2.73363162E-03 -1.57879856E-15
 -4.90845373E-02 -2.20523781E-01  6.26936398E-01 -6.93184024E-03  2.52970279E-16
 -7.74601903E-03 -1.56261346E-02 -7.59139360E-17  1.60248673E-02 -2.74250901E-14
 -1.00073325E-13  9.34238377E-13  5.75124256E-03 -1.40270466E-17  1.47327779E-16
  9.48317119E-02  1.34257352E-14  4.26801892E-15 -4.90845373E-02 -2.20523781E-01
  6.26936398E-01 -6.93184024E-03  1.67526818E-16  7.74601903E-03 -1.56261346E-02
 -2.78429923E-16 -1.60248673E-02  4.90845373E-02  2.20523781E-01 -6.26936398E-01
 -6.93184024E-03 -7.74601903E-03 -5.07274160E-17 -1.56261346E-02  1.60248673E-02
 -3.67329123E-16  4.90845373E-02  2.20523781E-01 -6.26936398E-01 -6.93184024E-03
  7.74601903E-03  2.40119830E-18 -1.56261346E-02 -1.60248673E-02 -1.33730956E-15
  2.73268279E-02  5.48788186E-02 -1.12983549E+00  6.73308428E-03 -2.23340745E-15
  1.80125484E-03 -5.02589157E-04 -1.19870728E-14 -5.14212084E-03 -1.62336373E-01
 -5.54945786E-01  4.05626320E+00 -4.47692254E-16  3.55365051E-15 -1.84214617E-15
 -5.55387949E-14 -1.94886961E-13  7.09875085E-14  2.73268279E-02  5.48788186E-02
 -1.12983549E+00  6.73308428E-03 -2.21688456E-15 -1.80125484E-03 -5.02589157E-04
 -1.16312286E-14  5.14212085E-03  2.73268279E-02  5.48788186E-02 -1.12983549E+00
 -6.73308428E-03 -1.80125484E-03  1.17555889E-15  5.02589157E-04  5.14212084E-03
  3.21423558E-15  2.73268279E-02  5.48788186E-02 -1.12983549E+00 -6.73308428E-03
  1.80125484E-03  7.06945757E-16  5.02589157E-04 -5.14212085E-03  5.15089257E-15
  5.98371088E-02  5.68931722E-01 -7.99301069E-01  7.56414660E-04  2.51729010E-04
 -1.76615176E-03  1.83682373E-02  1.32235953E-01  6.60250093E-02 -1.38904426E-14
 -6.97270857E-14  4.16554864E-13 -1.95900793E-15 -3.07331580E-03 -9.15386167E-04
  2.42850122E-14  6.82551558E-02  2.03297772E-02 -5.98371088E-02 -5.68931722E-01
  7.99301069E-01 -7.56414660E-04  2.51729010E-04 -1.76615176E-03 -1.83682373E-02
  1.32235953E-01  6.60250093E-02 -2.00896997E-01 -1.91013030E+00  2.68357191E+00
  2.53958516E-03 -5.92967462E-03  7.49774083E-05  6.16694856E-02  2.21672242E-01
  3.93864381E-02  2.00896997E-01  1.91013030E+00 -2.68357191E+00 -2.53958516E-03
 -5.92967462E-03  7.49774083E-05 -6.16694856E-02  2.21672242E-01  3.93864381E-02
 -2.00896997E-01 -1.91013030E+00  2.68357191E+00 -2.53958516E-03  7.49774083E-05
  5.92967462E-03 -6.16694856E-02  3.93864381E-02 -2.21672242E-01 -2.81891752E-14
 -9.17344982E-14  5.85906539E-13 -5.76224549E-16 -9.15386167E-04  3.07331580E-03
 -3.30069566E-15  2.03297772E-02 -6.82551558E-02  2.00896997E-01  1.91013030E+00
 -2.68357191E+00  2.53958516E-03  7.49774083E-05  5.92967462E-03  6.16694856E-02
  3.93864381E-02 -2.21672242E-01 -5.98371088E-02 -5.68931722E-01  7.99301069E-01
  7.56414660E-04 -1.76615176E-03 -2.51729010E-04  1.83682373E-02  6.60250093E-02
 -1.32235953E-01  5.98371088E-02  5.68931722E-01 -7.99301069E-01 -7.56414660E-04
 -1.76615176E-03 -2.51729010E-04 -1.83682373E-02  6.60250093E-02 -1.32235953E-01
  1.13478476E-03 -6.12502491E-02 -4.89953826E-01  2.46813214E-04 -2.06287627E-03
  3.00256685E-04  1.28745142E-02 -2.90560444E-01 -2.75077865E-02  1.07160407E-14
  4.50959852E-14 -1.84810488E-13  4.41830069E-16 -9.62854920E-03 -2.66366731E-03
 -4.53110757E-15 -6.00814784E-01 -1.66210991E-01 -1.13478476E-03  6.12502491E-02
  4.89953826E-01 -2.46813214E-04 -2.06287627E-03  3.00256685E-04 -1.28745142E-02
 -2.90560444E-01 -2.75077865E-02 -4.10198783E-03  2.21405666E-01  1.77107122E+00
  8.92173418E-04  1.08535936E-03 -5.70679546E-04  4.65384293E-02 -9.94343680E-02
 -8.03814095E-02  4.10198783E-03 -2.21405666E-01 -1.77107122E+00 -8.92173418E-04
  1.08535936E-03 -5.70679546E-04 -4.65384293E-02 -9.94343680E-02 -8.03814095E-02
 -4.10198783E-03  2.21405666E-01  1.77107122E+00 -8.92173418E-04 -5.70679546E-04
 -1.08535936E-03 -4.65384293E-02 -8.03814095E-02  9.94343680E-02  4.56243551E-15
  6.43058136E-15 -5.15235888E-14  7.95592998E-16 -2.66366731E-03  9.62854920E-03
 -2.18943774E-14 -1.66210991E-01  6.00814784E-01  4.10198783E-03 -2.21405666E-01
 -1.77107122E+00  8.92173418E-04 -5.70679546E-04 -1.08535936E-03  4.65384293E-02
 -8.03814095E-02  9.94343680E-02 -1.13478476E-03  6.12502491E-02  4.89953826E-01
  2.46813214E-04  3.00256685E-04  2.06287627E-03  1.28745142E-02 -2.75077865E-02
  2.90560444E-01  1.13478476E-03 -6.12502491E-02 -4.89953826E-01 -2.46813214E-04
  3.00256685E-04  2.06287627E-03 -1.28745142E-02 -2.75077865E-02  2.90560444E-01
 -8.27388184E-02 -3.37849252E-02  1.76071972E-01  6.02398638E-03 -1.40375105E-16
 -3.27748497E-03  3.51239008E-01  2.63796411E-18 -8.07950378E-02 -3.36128447E-15
  1.89974370E-14 -1.73904234E-14 -4.78969783E-02  1.19775837E-16 -2.52566902E-16
 -1.56611245E-01 -8.27240155E-15 -5.75208108E-15 -8.27388184E-02 -3.37849252E-02
  1.76071972E-01  6.02398638E-03 -1.83431894E-16  3.27748497E-03  3.51239008E-01
  8.03004232E-16  8.07950378E-02  8.27388184E-02  3.37849252E-02 -1.76071972E-01
  6.02398638E-03 -3.27748497E-03 -2.30693063E-17  3.51239008E-01 -8.07950378E-02
  4.96875257E-16  8.27388184E-02  3.37849252E-02 -1.76071972E-01  6.02398638E-03
  3.27748497E-03 -4.84880242E-17  3.51239008E-01  8.07950378E-02  1.39797212E-16
  7.33356372E-03  6.78363430E-02 -1.31079326E-02  5.07229143E-04 -2.28152895E-03
 -6.41952733E-04 -3.07843986E-02  4.29479990E-01  1.05554022E-02  6.11795706E-15
  3.60912054E-14 -5.09469076E-15  1.34717298E-15 -1.20067648E-02  8.82935592E-04
 -1.65141350E-14 -7.30078132E-01  5.36873984E-02 -7.33356372E-03 -6.78363430E-02
  1.31079326E-02 -5.07229143E-04 -2.28152895E-03 -6.41952733E-04  3.07843986E-02
  4.29479990E-01  1.05554022E-02  9.97268384E-02  9.22485202E-01 -1.78250674E-01
 -6.89765041E-03  8.72971435E-03  1.67775679E-04  4.18627404E-01 -1.43539611E-01
 -3.15824599E-02 -9.97268384E-02 -9.22485202E-01  1.78250674E-01  6.89765041E-03
  8.72971435E-03  1.67775679E-04 -4.18627404E-01 -1.43539611E-01 -3.15824599E-02
  9.97268384E-02  9.22485202E-01 -1.78250674E-01  6.89765041E-03  1.67775679E-04
 -8.72971435E-03 -4.18627404E-01 -3.15824599E-02  1.43539611E-01  3.24708765E-15
  3.41570281E-15 -1.99782328E-14 -7.55887289E-16  8.82935592E-04  1.20067648E-02
  9.01746626E-15  5.36873984E-02  7.30078132E-01 -9.97268384E-02 -9.22485202E-01
  1.78250674E-01 -6.89765041E-03  1.67775679E-04 -8.72971435E-03  4.18627404E-01
 -3.15824599E-02  1.43539611E-01 -7.33356372E-03 -6.78363430E-02  1.31079326E-02
  5.07229143E-04 -6.41952733E-04  2.28152895E-03 -3.07843986E-02  1.05554022E-02
 -4.29479990E-01  7.33356372E-03  6.78363430E-02 -1.31079326E-02 -5.07229143E-04
 -6.41952733E-04  2.28152895E-03  3.07843986E-02  1.05554022E-02 -4.29479990E-01
  6.93789138E-02 -5.47444370E-01  3.85418076E-01  3.88718876E-03  7.02413173E-16
 -7.98831001E-03  1.01909293E-01  7.10174656E-16  7.46936960E-01  5.41443994E-14
  2.43661738E-13  5.19640881E-13 -1.52320940E-02 -1.61679764E-15 -5.21944448E-17
  3.27973712E-02  2.20334744E-14  4.89356136E-15  6.93789138E-02 -5.47444370E-01
  3.85418076E-01  3.88718876E-03  8.61175059E-16  7.98831001E-03  1.01909293E-01
 -2.38174357E-15 -7.46936960E-01 -6.93789138E-02  5.47444370E-01 -3.85418076E-01
  3.88718876E-03 -7.98831001E-03  1.15400045E-16  1.01909293E-01  7.46936960E-01
 -1.08378809E-14 -6.93789138E-02  5.47444370E-01 -3.85418076E-01  3.88718876E-03
  7.98831001E-03 -1.81648237E-16  1.01909293E-01 -7.46936960E-01  7.16198005E-15
 -1.12581697E-01  3.69604992E-01 -6.06172618E-01  1.74553959E-03 -1.69405178E-15
  1.77044050E-03 -4.23924567E-01  3.29378446E-14 -5.10403988E-01  9.79819608E-02
  7.71442195E-01  1.28772360E+00  2.31684629E-15  4.12159544E-15 -5.01593254E-16
  5.81489319E-14 -8.07047855E-14  1.77727669E-14 -1.12581697E-01  3.69604992E-01
 -6.06172618E-01  1.74553959E-03 -7.57576293E-16 -1.77044050E-03 -4.23924567E-01
 -1.72731559E-14  5.10403988E-01 -1.12581697E-01  3.69604992E-01 -6.06172618E-01
 -1.74553959E-03 -1.77044050E-03  2.85560791E-16  4.23924567E-01  5.10403988E-01
  1.31810523E-14 -1.12581697E-01  3.69604992E-01 -6.06172618E-01 -1.74553959E-03
  1.77044050E-03  6.81531972E-16  4.23924567E-01 -5.10403988E-01 -1.44590368E-14
  7.10072697E-17 -1.02936165E-13  1.13090781E-15 -2.42597890E-18 -2.23945445E-02
  1.50562640E-16  7.28677561E-16  1.06621876E+00 -2.90957226E-14  3.41986570E-15
 -3.66468800E-15  2.21824775E-14 -1.50655931E-17 -6.64309227E-16 -2.08463403E-17
 -2.66764052E-15  1.49850733E-16 -2.24114493E-15 -6.94672098E-16  9.44039749E-14
 -1.08392391E-14  1.34555934E-16  2.23945445E-02  3.40304828E-16 -8.12362836E-15
 -1.06621876E+00 -4.25369443E-14  1.90745511E-15 -1.50101032E-13  4.52908876E-15
  1.12008607E-16 -2.58781615E-16  2.23945445E-02  4.21456459E-15  3.80935638E-14
 -1.06621876E+00  4.89020038E-16  1.31392690E-13 -5.51750648E-15  1.22382617E-16
 -5.67326005E-16 -2.23945445E-02 -1.04899265E-15  6.66999189E-14  1.06621876E+00
 -2.57154544E-03 -3.78464839E-01 -3.69804788E-01 -2.37401048E-03 -9.99330047E-16
 -6.69615593E-03 -3.75887918E-01 -1.44392822E-14  5.71619746E-01  2.82491948E-01
  1.22157384E-01  1.91883245E+00  2.49101086E-15  5.91467096E-15 -1.36261492E-15
  1.06268184E-15 -1.20021219E-13  3.38511387E-14 -2.57154544E-03 -3.78464839E-01
 -3.69804788E-01 -2.37401048E-03 -2.02807611E-15  6.69615593E-03 -3.75887918E-01
  3.87769903E-14 -5.71619746E-01 -2.57154544E-03 -3.78464839E-01 -3.69804788E-01
  2.37401048E-03  6.69615593E-03  7.28540140E-16  3.75887918E-01 -5.71619746E-01
 -3.24910999E-16 -2.57154544E-03 -3.78464839E-01 -3.69804788E-01  2.37401048E-03
 -6.69615593E-03  5.37261229E-16  3.75887918E-01  5.71619746E-01 -5.68937395E-15
  4.32915104E-15 -3.28053800E-13  1.22695341E-14 -1.41308546E-16 -1.99441157E-02
  6.23554681E-16  8.78867370E-16  1.08309142E+00 -9.75075632E-14  2.11668944E-15
 -1.39929009E-14 -5.67302725E-15 -2.96233673E-16 -3.99010984E-16  4.47634106E-16
  6.89108808E-15 -1.74090972E-15 -7.23898597E-15  8.99061213E-16  3.03968439E-13
  7.70710757E-15 -3.73308481E-16  1.99441157E-02  9.17820386E-16  1.19536843E-14
 -1.08309142E+00 -1.36264557E-13  2.21779339E-15  1.20205011E-14  9.35249206E-15
  2.39828472E-16  5.38026474E-17 -1.99441157E-02  8.31797632E-16 -2.18309012E-14
  1.08309142E+00  1.97131273E-15 -3.47321870E-14  4.55637225E-15 -1.88890986E-16
  4.30225692E-17  1.99441157E-02 -3.71904379E-15  4.28549297E-15 -1.08309142E+00
 -8.23290848E-02  4.59420006E+00 -6.39543511E-01  2.61980044E-02 -1.06397643E-04
 -5.30057769E-03 -1.65988724E+00  7.89893627E-03  1.80143170E+00  1.73800990E-14
 -4.49505479E-14 -1.50450580E-13 -2.02190760E-15 -1.08980459E-04 -2.61239773E-03
  1.51654019E-13 -3.73128638E-02 -8.94435957E-01  8.23290848E-02 -4.59420006E+00
  6.39543511E-01 -2.61980044E-02 -1.06397643E-04 -5.30057769E-03  1.65988724E+00
  7.89893627E-03  1.80143170E+00  3.43449289E-03 -1.91654595E-01  2.66796071E-02
  1.09289275E-03 -2.21122297E-04 -2.55048443E-03 -6.92449203E-02  7.51496796E-02
  1.89347370E-01 -3.43449289E-03  1.91654595E-01 -2.66796071E-02 -1.09289275E-03
 -2.21122297E-04 -2.55048443E-03  6.92449203E-02  7.51496796E-02  1.89347370E-01
 -3.43449289E-03  1.91654595E-01 -2.66796071E-02  1.09289275E-03  2.55048443E-03
 -2.21122297E-04 -6.92449203E-02 -1.89347370E-01  7.51496796E-02 -6.69766096E-14
  6.30069948E-14 -4.40407795E-13  5.92193990E-15  2.61239773E-03 -1.08980459E-04
 -5.70975239E-13  8.94435957E-01 -3.73128638E-02  3.43449289E-03 -1.91654595E-01
  2.66796071E-02 -1.09289275E-03  2.55048443E-03 -2.21122297E-04  6.92449203E-02
 -1.89347370E-01  7.51496796E-02 -8.23290848E-02  4.59420006E+00 -6.39543511E-01
 -2.61980044E-02  5.30057769E-03 -1.06397643E-04  1.65988724E+00 -1.80143170E+00
  7.89893627E-03  8.23290848E-02 -4.59420006E+00  6.39543511E-01  2.61980044E-02
  5.30057769E-03 -1.06397643E-04 -1.65988724E+00 -1.80143170E+00  7.89893627E-03
  2.24496007E-01  4.15456597E-01  2.15630529E-01 -3.94561966E-02  2.29414826E-15
  1.26629969E-02  7.39265542E-01 -1.04232203E-13  3.40839054E-02 -3.39717553E-14
  4.31868034E-14 -3.76222850E-14  1.37690680E-02 -7.77429776E-15 -3.59170366E-18
  2.66654935E+00  5.84781408E-13  5.46587299E-14  2.24496007E-01  4.15456597E-01
  2.15630529E-01 -3.94561966E-02  2.16976810E-15 -1.26629969E-02  7.39265542E-01
 -9.91361765E-14 -3.40839054E-02 -2.24496007E-01 -4.15456597E-01 -2.15630529E-01
 -3.94561966E-02  1.26629969E-02  2.64602965E-16  7.39265542E-01  3.40839054E-02
 -1.36194876E-14 -2.24496007E-01 -4.15456597E-01 -2.15630529E-01 -3.94561966E-02
 -1.26629969E-02 -2.19160562E-16  7.39265542E-01 -3.40839054E-02 -5.25418922E-15
 -1.00655645E-01  2.26617439E+01 -5.58261322E-01 -1.23301920E-02 -3.46564078E-05
 -2.57494767E-02  9.40987004E-01  1.20995491E-03  8.23319895E+00  1.70461063E-13
 -2.60904305E-13 -3.55732984E-13  3.98111244E-15  1.59435567E-04 -1.90936319E-02
 -1.48727897E-13 -7.75271129E-03  9.28446638E-01  1.00655645E-01 -2.26617439E+01
  5.58261322E-01  1.23301920E-02 -3.46564078E-05 -2.57494767E-02 -9.40987004E-01
  1.20995491E-03  8.23319895E+00 -8.40494352E-04  1.89230000E-01 -4.66159139E-03
  1.02959518E-04  2.15013174E-04  4.15037064E-03 -7.85742580E-03 -6.87488239E-02
 -1.44901380E-01  8.40494352E-04 -1.89230000E-01  4.66159139E-03 -1.02959518E-04
  2.15013174E-04  4.15037064E-03  7.85742580E-03 -6.87488239E-02 -1.44901380E-01
  8.40494352E-04 -1.89230000E-01  4.66159139E-03  1.02959518E-04 -4.15037064E-03
  2.15013174E-04 -7.85742580E-03  1.44901380E-01 -6.87488239E-02 -4.15310584E-13
  6.93990493E-13 -1.67418343E-12  4.63576379E-14  1.90936319E-02  1.59435567E-04