H5 optimization                                                         
FOpt      RMP2-FC                                                     Aug-CC-pVDZ         
Number of atoms                            I                5
Info1-9                                    I   N=           9
          37          31           0           0           0         100
           2           2           1
Charge                                     I                1
Multiplicity                               I                1
Number of electrons                        I                4
Number of alpha electrons                  I                2
Number of beta electrons                   I                2
Number of basis functions                  I               45
Number of independent functions            I               45
Number of point charges in /Mol/           I                0
Number of translation vectors              I                0
Atomic numbers                             I   N=           5
           1           1           1           1           1
Nuclear charges                            R   N=           5
  1.00000000E+00  1.00000000E+00  1.00000000E+00  1.00000000E+00  1.00000000E+00
Current cartesian coordinates              R   N=          15
  8.44102798E-01  2.50523925E-04  1.92913676E-01  2.85492595E+00 -1.34675512E-06
  9.44861622E-01  8.44104973E-01 -2.51981132E-04  1.69681543E+00  4.86553088E+00
  7.51965863E-01  9.44611335E-01  4.86553292E+00 -7.51963059E-01  9.45113270E-01
Force Field                                I                0
Int Atom Types                             I   N=           5
           0           0           0           0           0
MM charges                                 R   N=           5
  0.00000000E+00  0.00000000E+00  0.00000000E+00  0.00000000E+00  0.00000000E+00
Integer atomic weights                     I   N=           5
           1           1           1           1           1
Real atomic weights                        R   N=           5
  1.00782504E+00  1.00782504E+00  1.00782504E+00  1.00782504E+00  1.00782504E+00
Atom fragment info                         I   N=           5
           0           0           0           0           0
Atom residue num                           I   N=           5
           0           0           0           0           0
Nuclear spins                              I   N=           5
           1           1           1           1           1
Nuclear ZEff                               R   N=           5
 -1.00000000E+00 -1.00000000E+00 -1.00000000E+00 -1.00000000E+00 -1.00000000E+00
Nuclear ZNuc                               R   N=           5
  1.00000000E+00  1.00000000E+00  1.00000000E+00  1.00000000E+00  1.00000000E+00
Nuclear QMom                               R   N=           5
  0.00000000E+00  0.00000000E+00  0.00000000E+00  0.00000000E+00  0.00000000E+00
Nuclear GFac                               R   N=           5
  2.79284600E+00  2.79284600E+00  2.79284600E+00  2.79284600E+00  2.79284600E+00
MicOpt                                     I   N=           5
          -1          -1          -1          -1          -1
Number of contracted shells                I               25
Number of primitive shells                 I               35
Pure/Cartesian d shells                    I                0
Pure/Cartesian f shells                    I                0
Highest angular momentum                   I                1
Largest degree of contraction              I                3
Shell types                                I   N=          25
           0           0           0           1           1           0
           0           0           1           1           0           0
           0           1           1           0           0           0
           1           1           0           0           0           1
           1
Number of primitives per shell             I   N=          25
           3           1           1           1           1           3
           1           1           1           1           3           1
           1           1           1           3           1           1
           1           1           3           1           1           1
           1
Shell to atom map                          I   N=          25
           1           1           1           1           1           2
           2           2           2           2           3           3
           3           3           3           4           4           4
           4           4           5           5           5           5
           5
Primitive exponents                        R   N=          35
  1.30100000E+01  1.96200000E+00  4.44600000E-01  1.22000000E-01  2.97400000E-02
  7.27000000E-01  1.41000000E-01  1.30100000E+01  1.96200000E+00  4.44600000E-01
  1.22000000E-01  2.97400000E-02  7.27000000E-01  1.41000000E-01  1.30100000E+01
  1.96200000E+00  4.44600000E-01  1.22000000E-01  2.97400000E-02  7.27000000E-01
  1.41000000E-01  1.30100000E+01  1.96200000E+00  4.44600000E-01  1.22000000E-01
  2.97400000E-02  7.27000000E-01  1.41000000E-01  1.30100000E+01  1.96200000E+00
  4.44600000E-01  1.22000000E-01  2.97400000E-02  7.27000000E-01  1.41000000E-01
Contraction coefficients                   R   N=          35
  3.34987264E-02  2.34800801E-01  8.13682958E-01  1.00000000E+00  1.00000000E+00
  1.00000000E+00  1.00000000E+00  3.34987264E-02  2.34800801E-01  8.13682958E-01
  1.00000000E+00  1.00000000E+00  1.00000000E+00  1.00000000E+00  3.34987264E-02
  2.34800801E-01  8.13682958E-01  1.00000000E+00  1.00000000E+00  1.00000000E+00
  1.00000000E+00  3.34987264E-02  2.34800801E-01  8.13682958E-01  1.00000000E+00
  1.00000000E+00  1.00000000E+00  1.00000000E+00  3.34987264E-02  2.34800801E-01
  8.13682958E-01  1.00000000E+00  1.00000000E+00  1.00000000E+00  1.00000000E+00
Coordinates of each shell                  R   N=          75
  8.44102798E-01  2.50523925E-04  1.92913676E-01  8.44102798E-01  2.50523925E-04
  1.92913676E-01  8.44102798E-01  2.50523925E-04  1.92913676E-01  8.44102798E-01
  2.50523925E-04  1.92913676E-01  8.44102798E-01  2.50523925E-04  1.92913676E-01
  2.85492595E+00 -1.34675512E-06  9.44861622E-01  2.85492595E+00 -1.34675512E-06
  9.44861622E-01  2.85492595E+00 -1.34675512E-06  9.44861622E-01  2.85492595E+00
 -1.34675512E-06  9.44861622E-01  2.85492595E+00 -1.34675512E-06  9.44861622E-01
  8.44104973E-01 -2.51981132E-04  1.69681543E+00  8.44104973E-01 -2.51981132E-04
  1.69681543E+00  8.44104973E-01 -2.51981132E-04  1.69681543E+00  8.44104973E-01
 -2.51981132E-04  1.69681543E+00  8.44104973E-01 -2.51981132E-04  1.69681543E+00
  4.86553088E+00  7.51965863E-01  9.44611335E-01  4.86553088E+00  7.51965863E-01
  9.44611335E-01  4.86553088E+00  7.51965863E-01  9.44611335E-01  4.86553088E+00
  7.51965863E-01  9.44611335E-01  4.86553088E+00  7.51965863E-01  9.44611335E-01
  4.86553292E+00 -7.51963059E-01  9.45113270E-01  4.86553292E+00 -7.51963059E-01
  9.45113270E-01  4.86553292E+00 -7.51963059E-01  9.45113270E-01  4.86553292E+00
 -7.51963059E-01  9.45113270E-01  4.86553292E+00 -7.51963059E-01  9.45113270E-01
Constraint Structure                       R   N=          15
  0.00000000E+00  0.00000000E+00  0.00000000E+00  2.85483950E+00  0.00000000E+00
  9.44863066E-01  0.00000000E+00  0.00000000E+00  1.88972613E+00  5.70967901E+00
  9.44863066E-01  9.44863066E-01  5.70967901E+00 -9.44863066E-01  9.44863066E-01
Num ILSW                                   I              100
ILSW                                       I   N=         100
           0           0           0           0           2           0
           0           0           0           0           0          -1
           0           0           0           0           2           0
           0           0           0           0           1           0
           1           1           0           0           0           0
           0           0      100000           0          -1           0
           0           0           0           0           0           0
           0           0           0           1           0           0
           0           0           1           0           0           0
           0           0           4          41           0           0
           0           0           0           0           0           0
           0           0           0           5           0           0
           0           0           0           0           0           0
           0           0           0           0           0           0
           0           0           0           0           0           0
           0           0           0           0           0           0
           0           0           0           0
Num RLSW                                   I               41
RLSW                                       R   N=          41
  1.00000000E+00  1.00000000E+00  1.00000000E+00  1.00000000E+00  1.00000000E+00
  0.00000000E+00  0.00000000E+00  1.00000000E+00  0.00000000E+00  0.00000000E+00
  0.00000000E+00  0.00000000E+00  1.00000000E+00  0.00000000E+00  0.00000000E+00
  0.00000000E+00  0.00000000E+00  1.00000000E+00  0.00000000E+00  0.00000000E+00
  0.00000000E+00  0.00000000E+00  1.00000000E+00  0.00000000E+00  0.00000000E+00
  0.00000000E+00  0.00000000E+00  1.00000000E+00  0.00000000E+00  0.00000000E+00
  0.00000000E+00  0.00000000E+00  1.00000000E+00  0.00000000E+00  0.00000000E+00
  0.00000000E+00  0.00000000E+00  0.00000000E+00  1.00000000E+00  1.00000000E+00
  0.00000000E+00
MxBond                                     I                4
NBond                                      I   N=           5
           2           4           2           2           2
IBond                                      I   N=          20
           2           3           0           0           1           3
           4           5           1           2           0           0
           2           5           0           0           2           4
           0           0
RBond                                      R   N=          20
  1.00000000E-01  1.00000000E-01  0.00000000E+00  0.00000000E+00  1.00000000E-01
  1.00000000E-01  1.00000000E-01  1.00000000E-01  1.00000000E-01  1.00000000E-01
  0.00000000E+00  0.00000000E+00  1.00000000E-01  1.00000000E-01  0.00000000E+00
  0.00000000E+00  1.00000000E-01  1.00000000E-01  0.00000000E+00  0.00000000E+00
Virial Ratio                               R      2.031347690716640E+00
SCF Energy                                 R     -2.432333584111079E+00
MP2 Energy                                 R     -2.495524718123404E+00
Total Energy                               R     -2.495524718123404E+00
Post-SCF wavefunction norm                 R      1.011152227471745E+00
RMS Force                                  R      2.147863545064234E-07
RMS Density                                R      1.635161394748611E-09
Job Status                                 I                1
Nuclear derivative order                   I                1
External E-field                           R   N=          35
  0.00000000E+00  0.00000000E+00  0.00000000E+00  0.00000000E+00  0.00000000E+00
  0.00000000E+00  0.00000000E+00  0.00000000E+00  0.00000000E+00  0.00000000E+00
  0.00000000E+00  0.00000000E+00  0.00000000E+00  0.00000000E+00  0.00000000E+00
  0.00000000E+00  0.00000000E+00  0.00000000E+00  0.00000000E+00  0.00000000E+00
  0.00000000E+00  0.00000000E+00  0.00000000E+00  0.00000000E+00  0.00000000E+00
  0.00000000E+00  0.00000000E+00  0.00000000E+00  0.00000000E+00  0.00000000E+00
  0.00000000E+00  0.00000000E+00  0.00000000E+00  0.00000000E+00  0.00000000E+00
IOpCl                                      I                0
IROHF                                      I                0
Alpha Orbital Energies                     R   N=          45
 -1.12385649E+00 -9.11642455E-01 -1.46512438E-01 -1.45349728E-01 -1.45311182E-01
 -8.94343378E-02 -7.82360994E-02 -2.58250321E-02 -1.81679553E-02 -1.81381191E-02
  4.35848246E-02  4.36449967E-02  1.53744568E-01  1.61468788E-01  1.92101477E-01
  2.00344305E-01  2.55718122E-01  2.55752534E-01  2.71660497E-01  2.89788160E-01
  3.27383546E-01  3.27395945E-01  3.44475332E-01  4.36605229E-01  4.36638616E-01
  6.06003788E-01  6.89232869E-01  8.52009601E-01  8.52212235E-01  9.70395588E-01
  1.14866968E+00  1.24831775E+00  1.24845845E+00  1.51949427E+00  1.51963155E+00
  1.68417351E+00  1.78947604E+00  1.83937050E+00  1.84877594E+00  1.86816132E+00
  2.21233575E+00  2.21270167E+00  2.85285844E+00  3.13278522E+00  3.13288627E+00
Alpha MO coefficients                      R   N=        2025
  2.43000589E-01 -2.65621317E-02  1.45889115E-03  1.39792027E-02 -5.41709969E-06
  1.70296282E-02 -2.46503555E-02  3.58612132E-06 -5.94719623E-03  3.19365766E-01
  3.41906321E-01 -7.08473567E-03  5.07121592E-06  2.86466417E-08  3.07220848E-08
 -4.23912243E-05  9.35098551E-08  1.00408602E-07  2.43000604E-01 -2.65613747E-02
  1.45887983E-03  1.39791517E-02  5.41069733E-06 -1.70296720E-02 -2.46502176E-02
 -3.58639257E-06  5.94706852E-03  2.43075173E-01 -2.65144445E-02  1.45701043E-03
 -1.39831237E-02 -1.70353480E-02  5.40572695E-06  2.46369588E-02  5.93880036E-03
 -3.58218737E-06  2.43075158E-01 -2.65151513E-02  1.45702108E-03 -1.39831715E-02
  1.70353070E-02 -5.41283404E-06  2.46370877E-02 -5.93891937E-03  3.58229878E-06
  3.19204781E-01  1.36542516E-01 -2.44495699E-03  1.16632291E-02 -6.98421077E-06
  2.04488975E-02  2.15494575E-02 -3.80703648E-06  1.86879899E-02  9.62349208E-06
  1.10089861E-04 -1.00301559E-05 -3.32453588E-02 -1.57891022E-08  1.66453423E-08
  4.51370702E-02 -9.24892101E-08  9.96405658E-08  3.19204747E-01  1.36542185E-01
 -2.44489504E-03  1.16631570E-02  6.97417006E-06 -2.04489284E-02  2.15491867E-02
  3.81769906E-06 -1.86880717E-02 -3.19141992E-01 -1.36572897E-01  2.45023732E-03
  1.16599263E-02  2.04455997E-02 -6.96471475E-06  2.15648926E-02  1.86907919E-02
 -3.81381423E-06 -3.19142024E-01 -1.36573207E-01  2.45029517E-03  1.16599939E-02
 -2.04455708E-02  6.97569846E-06  2.15651454E-02 -1.86907155E-02  3.80276814E-06
 -1.00820635E-01 -2.58885779E-01 -6.27013345E-01  2.49554805E-02  2.84983555E-07
 -2.72422364E-03  4.27560241E-02 -1.64562805E-06 -4.33681250E-03  4.00753629E-01
  9.19360631E-01  1.76872836E+00 -1.73921440E-06 -1.50848005E-06 -1.60411757E-06
 -8.25557000E-07 -2.84565507E-06 -3.02539894E-06 -1.00838747E-01 -2.58999453E-01
 -6.27219250E-01  2.49549501E-02 -1.34535077E-06  2.72192320E-03  4.27422696E-02
 -5.73399205E-06  4.34552406E-03 -1.00837924E-01 -2.59034912E-01 -6.27369100E-01
 -2.49599288E-02  2.72111146E-03 -1.37812704E-06 -4.27591535E-02  4.34407172E-03
 -5.96720893E-06 -1.00820888E-01 -2.58928009E-01 -6.27175464E-01 -2.49604278E-02
 -2.72327481E-03  2.49575932E-07 -4.27720852E-02 -4.33588010E-03 -1.88378283E-06
 -1.03350281E-01 -6.43620029E-01 -1.19861582E+00 -3.04502361E-03 -7.97026023E-03
  1.26950502E-02 -7.76905866E-02 -5.62200529E-02 -4.91898179E-02 -2.60975356E-06
 -5.78351798E-06 -1.12752946E-05  3.70280289E-08 -2.31389223E-02  1.81971317E-02
 -3.51445767E-07 -4.51140201E-02  3.54644305E-02  1.03351624E-01  6.43622990E-01
  1.19862464E+00  3.04472171E-03 -7.97026800E-03  1.26950040E-02  7.76897216E-02
 -5.62199963E-02 -4.91899916E-02 -1.31429294E-01 -8.18349140E-01 -1.52427659E+00
  3.87196614E-03 -1.61447644E-02  6.27014759E-03  9.87725612E-02  6.25174533E-02
  4.42092878E-02  1.31430536E-01  8.18352627E-01  1.52428409E+00 -3.87160770E-03
 -1.61447475E-02  6.27014094E-03 -9.87722387E-02  6.25173495E-02  4.42093349E-02
  1.31382764E-01  8.17622332E-01  1.52557680E+00  3.86630390E-03 -6.26286883E-03
 -1.61406358E-02  9.87358290E-02 -4.42812505E-02  6.23537779E-02 -2.94856211E-05
 -6.51819091E-05 -1.27105585E-04 -5.41503986E-09 -1.81901886E-02 -2.31302511E-02
  5.50305625E-08 -3.55636369E-02 -4.52034112E-02 -1.31368173E-01 -8.17585975E-01
 -1.52548482E+00 -3.87004012E-03 -6.26287197E-03 -1.61409883E-02 -9.87425272E-02
 -4.42812302E-02  6.23534108E-02 -1.03319025E-01 -6.42919744E-01 -1.19978797E+00
  3.04390549E-03 -1.26953933E-02 -7.96640033E-03  7.76416895E-02  4.90118567E-02
 -5.63021749E-02  1.03333631E-01  6.42956026E-01  1.19988018E+00 -3.04017698E-03
 -1.26950364E-02 -7.96639605E-03 -7.76349042E-02  4.90122655E-02 -5.63022053E-02
 -1.44907757E-01 -3.22055881E-01 -5.12693591E-01  9.45696707E-03  4.11784190E-06
 -1.38978346E-02  8.34352699E-02  5.10589926E-06  2.61478453E-03  1.75266389E-01
  2.32988561E-01  3.26232156E+00 -2.82558655E-06 -1.85041737E-09 -1.98589317E-09
  8.99165827E-05  8.51977153E-08  9.14217307E-08 -1.44907275E-01 -3.22054977E-01
 -5.12680028E-01  9.45701849E-03 -4.11711877E-06  1.38978712E-02  8.34350594E-02
 -5.08909329E-06 -2.61475945E-03 -1.44918637E-01 -3.22171225E-01 -5.12710602E-01
 -9.45824429E-03  1.38986685E-02 -4.11209316E-06 -8.34136705E-02 -2.58992379E-03
 -5.09824523E-06 -1.44919085E-01 -3.22172056E-01 -5.12723262E-01 -9.45819624E-03
 -1.38986346E-02  4.11266626E-06 -8.34138664E-02  2.58994882E-03  5.11438757E-06
 -6.68569044E-02 -3.41174723E-01  8.88750068E-01 -9.69544717E-03  2.32607298E-06
 -6.48661972E-03 -8.90158576E-02  8.16377668E-06 -3.91398879E-02 -2.49328969E-05
 -3.39272782E-04  7.53616196E-05  1.53732138E-02  6.07694342E-10 -5.10375214E-10
 -3.53294525E-01  9.17272797E-08 -1.01170928E-07 -6.68569337E-02 -3.41173085E-01
  8.88750594E-01 -9.69542554E-03 -2.33144642E-06  6.48664340E-03 -8.90151541E-02
 -8.19020715E-06  3.91400044E-02  6.68695596E-02  3.41322713E-01 -8.88742294E-01
 -9.69007212E-03 -6.48648939E-03  2.32900265E-06 -8.90509183E-02 -3.91591476E-02
  8.18407929E-06  6.68695326E-02  3.41324244E-01 -8.88741811E-01 -9.69009231E-03
  6.48646714E-03 -2.32338591E-06 -8.90515749E-02  3.91590379E-02 -8.15702831E-06
  6.32825030E-02  1.42855451E-01 -3.43049008E+00 -1.01783061E-02 -3.09661796E-07
 -9.27478462E-05 -3.62590724E-02 -2.39497876E-06  1.70750493E-02 -2.36295844E-01
 -7.95458249E-01  1.30610922E+01  2.11346598E-06  9.25009852E-08  9.87884081E-08
 -2.30909405E-04 -5.10420740E-07 -5.44416707E-07  6.32840365E-02  1.42901919E-01
 -3.43050204E+00 -1.01782660E-02  3.31957477E-07  9.30246309E-05 -3.62568450E-02
  2.58921836E-06 -1.70838643E-02  6.32883015E-02  1.43215803E-01 -3.43090394E+00
  1.01807671E-02  9.39890105E-05  3.32689279E-07  3.61683464E-02 -1.71287626E-02
  2.59675597E-06  6.32868662E-02  1.43172326E-01 -3.43089266E+00  1.01808048E-02
 -9.37300687E-05 -3.08695883E-07  3.61704306E-02  1.71205147E-02 -2.39005476E-06
 -1.04315900E-01 -3.58406615E+00  2.73663708E+00 -3.03023614E-03 -4.28831614E-03
  1.70129933E-02 -2.17971773E-01 -7.28897997E-02 -6.88094349E-01 -1.55260415E-07
  1.02122198E-07  8.22622928E-06  7.44934808E-08 -2.43970677E-02  1.82607534E-02
 -3.44369887E-06  1.79462181E-01 -1.34376761E-01  1.04315966E-01  3.58406290E+00
 -2.73664255E+00  3.03025593E-03 -4.28832575E-03  1.70129663E-02  2.17968472E-01
 -7.28895913E-02 -6.88094300E-01 -1.39403436E-01 -4.78836365E+00  3.65695053E+00
  4.04947349E-03 -2.27326904E-02  3.21391397E-03  2.91185702E-01  9.19261939E-01
  5.44373157E-02  1.39403555E-01  4.78836671E+00 -3.65695377E+00 -4.04940990E-03
 -2.27327170E-02  3.21390710E-03 -2.91189124E-01  9.19261814E-01  5.44373978E-02
  1.39405388E-01  4.78837837E+00 -3.65804831E+00  4.04871234E-03 -3.20008508E-03
 -2.27317920E-02  2.91076641E-01 -5.50544906E-02  9.19245510E-01 -1.40459680E-06
  1.11140717E-06  7.45837119E-05 -1.31384681E-08 -1.82520544E-02 -2.43900841E-02
  6.13499902E-07  1.33988136E-01  1.79117770E-01 -1.39404549E-01 -4.78837874E+00
  3.65800902E+00 -4.04891807E-03 -3.20009198E-03 -2.27317890E-02 -2.91075514E-01
 -5.50541693E-02  9.19246309E-01 -1.04346851E-01 -3.58327235E+00  2.73794942E+00
  3.03067087E-03 -1.70131286E-02 -4.28186207E-03  2.17802055E-01  6.87864741E-01
 -7.34082608E-02  1.04347681E-01  3.58327085E+00 -2.73798912E+00 -3.03047982E-03
 -1.70131221E-02 -4.28185346E-03 -2.17801982E-01  6.87863954E-01 -7.34086183E-02
  8.37322584E-02  1.56917812E+00  2.57966862E-01  4.78539299E-03  8.33743374E-03
 -1.49344070E-02 -3.16156848E-01  3.36750505E-01  2.97514586E-01 -1.11887197E-07
 -1.92137372E-05  1.41857862E-05 -5.88932755E-09  6.97616252E-03  7.86506761E-03
  3.88800823E-07 -1.03941569E-01 -1.17247468E-01 -8.37325112E-02 -1.56916774E+00
 -2.57974446E-01 -4.78542567E-03  8.33744765E-03 -1.49343857E-02  3.16162454E-01
  3.36750075E-01  2.97513838E-01 -7.42680531E-02 -1.39140882E+00 -2.29064815E-01
  4.24482168E-03 -1.32450788E-02  9.39991435E-03 -2.80488109E-01  2.63816432E-01
  3.79696805E-01  7.42678177E-02  1.39141818E+00  2.29057355E-01 -4.24479434E-03
 -1.32450938E-02  9.39990006E-03  2.80483136E-01  2.63816882E-01  3.79697267E-01
 -7.42198431E-02 -1.39090091E+00 -2.28542021E-01 -4.24200668E-03  9.38978163E-03
  1.32463592E-02  2.80756765E-01  3.80037565E-01 -2.63663122E-01 -3.17014720E-09
 -4.66564227E-07  3.50843715E-07  6.13235308E-08  7.86592184E-03 -6.97770392E-03
 -4.08381093E-06 -1.17750633E-01  1.04508962E-01  7.42199282E-02  1.39089580E+00
  2.28542475E-01  4.24203340E-03  9.38979043E-03  1.32463262E-02 -2.80760012E-01
  3.80036948E-01 -2.63661537E-01 -8.36664283E-02 -1.56748308E+00 -2.57911909E-01
  4.78228906E-03 -1.49308754E-02 -8.32960660E-03 -3.16564343E-01  2.97142432E-01
 -3.37156747E-01  8.36663318E-02  1.56748867E+00  2.57911084E-01 -4.78226047E-03
 -1.49309093E-02 -8.32960064E-03  3.16560843E-01  2.97144052E-01 -3.37157272E-01
 -7.11639475E-02  2.26422371E+00 -6.95564039E-01  8.10628289E-04  6.50033673E-06
 -6.58299948E-03  3.31418040E-01 -2.26928945E-04 -3.43703912E-01  8.35602528E-06
  1.19888629E-03  9.29261537E-04 -4.62083194E-03  2.93910704E-09 -3.16164140E-09
  3.26667580E+00  5.12506646E-07 -5.22210067E-07 -7.11638458E-02  2.26421529E+00
 -6.95563944E-01  8.10640853E-04 -6.50439509E-06  6.58301245E-03  3.31414253E-01
  2.25872702E-04  3.43703121E-01  7.12246214E-02 -2.26508661E+00  6.95205911E-01
  8.06790808E-04 -6.58711743E-03  6.48445929E-06  3.31563803E-01 -3.43881282E-01
 -2.24576468E-04  7.12247164E-02 -2.26509446E+00  6.95205999E-01  8.06778933E-04
  6.58710561E-03 -6.48007132E-06  3.31567327E-01  3.43882029E-01  2.25714246E-04
  1.29583179E-04 -3.75468012E-04 -1.14876193E-03  4.32004446E-06  1.60026079E-02
  6.72418017E-06  1.72266782E-04 -1.14380978E+00  7.77182747E-04  9.82249032E-05
 -2.11225177E-03  6.06058546E-03  4.32638559E-09  2.63353959E-08  2.44675510E-08
 -1.94835140E-06 -2.71583059E-06 -2.52565957E-06  1.29558177E-04 -3.66315587E-04
 -1.15026979E-03  4.32373362E-06 -1.60026165E-02 -6.70717509E-06  1.73589614E-04
  1.14381121E+00 -7.78202498E-04  1.29442064E-04 -3.63072331E-04 -1.15155156E-03
 -4.32326866E-06 -6.69444035E-06 -1.60021877E-02 -1.73918656E-04 -7.77892816E-04
  1.14393960E+00  1.29469105E-04 -3.72892075E-04 -1.14993281E-03 -4.31959068E-06
  6.71265237E-06  1.60021796E-02 -1.72472892E-04  7.76801624E-04 -1.14393827E+00
  1.57631234E-01  1.91898461E-01 -9.18060065E-01  2.16723520E-03 -2.39471833E-05
  2.87978162E-03  3.90297273E-01  1.30270346E-03  9.28834537E-01  9.77306806E-02
 -3.87655042E+00  4.91040871E+00  4.86311265E-07 -6.05488079E-09 -6.52544362E-09
 -4.08973317E-04  3.71810577E-06  3.98685866E-06  1.57631112E-01  1.91858979E-01
 -9.18046145E-01  2.16727492E-03  2.39855062E-05 -2.87982654E-03  3.90290038E-01
 -1.30415303E-03 -9.28828740E-01  1.57602142E-01  1.92578228E-01 -9.18405208E-01
 -2.16741310E-03 -2.88028799E-03  2.39841095E-05 -3.90352274E-01 -9.28712948E-01
 -1.30467371E-03  1.57602255E-01  1.92615111E-01 -9.18418194E-01 -2.16737601E-03
  2.88024593E-03 -2.39430070E-05 -3.90359039E-01  9.28718365E-01  1.30311316E-03
 -9.19384214E-02  2.35133542E+00 -3.69726478E-01  1.05167739E-02 -1.20292047E-05
 -8.91463679E-03  4.49892135E-01  6.16899202E-04  1.07691842E+00 -5.18997625E-06
  1.31908821E-03 -2.20736326E-04  2.87934357E-02  6.45914002E-08 -6.90492499E-08
  4.46047614E+00 -5.20489639E-06  5.61407531E-06 -9.19382268E-02  2.35126610E+00
 -3.69719085E-01  1.05167906E-02  1.19949187E-05  8.91452713E-03  4.49880626E-01
 -6.16026732E-04 -1.07690831E+00  9.19780630E-02 -2.35199046E+00  3.69856074E-01
  1.05173749E-02 -8.91614886E-03 -1.19918202E-05  4.49968364E-01  1.07700221E+00
  6.16182150E-04  9.19782456E-02 -2.35205519E+00  3.69862978E-01  1.05173590E-02
  8.91625147E-03  1.20288353E-05  4.49979130E-01 -1.07701165E+00 -6.17110526E-04
 -7.48372990E-02  1.20965766E+01 -1.48167109E+00 -1.19536157E-03 -4.16293843E-03
 -1.73840987E-02 -5.95357576E-02  4.61224858E-01  2.86428109E+00  1.98683348E-08
  6.22103244E-07  1.09809586E-07  7.67191907E-08 -1.09701887E-03  9.39818444E-04
 -4.82709085E-05 -1.54790164E+00  1.32845024E+00  7.48378527E-02 -1.20966355E+01
  1.48167320E+00  1.19512469E-03 -4.16290282E-03 -1.73842220E-02  5.95222006E-02
  4.61221772E-01  2.86429736E+00 -8.72319631E-02  1.40963048E+01 -1.72659677E+00
  1.39748629E-03  2.02516481E-02  3.57196492E-03  6.91550533E-02 -3.33783245E+00
 -3.95576392E-01  8.72314197E-02 -1.40962467E+01  1.72659457E+00 -1.39773398E-03
  2.02515216E-02  3.57198840E-03 -6.91674801E-02 -3.33781589E+00 -3.95578487E-01
 -8.72551067E-02  1.40996892E+01 -1.72718678E+00 -1.40069388E-03  3.58806823E-03
 -2.02492456E-02 -6.86806742E-02 -3.98047792E-01  3.33852334E+00 -4.55890572E-07
 -1.55330107E-05 -2.25734943E-06  9.09366622E-09  9.35701508E-04  1.08824080E-03
 -5.60912311E-06  1.32890099E+00  1.54830951E+00  8.72550262E-02 -1.40996874E+01
  1.72718785E+00  1.40054052E-03  3.58801510E-03 -2.02492982E-02  6.86924691E-02
 -3.98043435E-01  3.33852866E+00  7.49172049E-02 -1.21028349E+01  1.48256939E+00
 -1.20631391E-03 -1.73760868E-02  4.17952324E-03 -5.87872754E-02  2.86575149E+00
 -4.63461208E-01 -7.49174107E-02  1.21028502E+01 -1.48256881E+00  1.20641199E-03
 -1.73760628E-02  4.17957863E-03  5.87723589E-02  2.86574994E+00 -4.63465766E-01
 -5.10650511E-02  8.60370261E+00 -1.81071312E-01  2.03277379E-02 -3.72850270E-05
 -1.49872196E-02  3.44795137E+00  2.37385958E-03  1.84694380E+00 -8.13346986E-05
  5.64952393E-03 -1.56464207E-03 -3.63938318E-02  4.05574780E-08 -4.38419844E-08
  1.42070961E+01 -1.40854199E-05  1.52598175E-05 -5.10630708E-02  8.60347455E+00
 -1.81047522E-01  2.03279229E-02  3.71772502E-05  1.49871335E-02  3.44790898E+00
 -2.37146765E-03 -1.84691107E+00  5.11387992E-02 -8.60640288E+00  1.81893622E-01
  2.03300598E-02 -1.49934032E-02 -3.71682297E-05  3.44841144E+00  1.84734093E+00
  2.37170885E-03  5.11406427E-02 -8.60661514E+00  1.81915741E-01  2.03298865E-02
  1.49934837E-02  3.72846674E-05  3.44845103E+00 -1.84737131E+00 -2.37424643E-03
 -1.11050190E-04  1.70776772E-02 -3.28300098E-04  4.54671570E-05  2.04128958E-02
 -2.52731483E-05  6.66245693E-03 -1.59715628E+00  4.01254474E-03 -2.41411728E-07
  9.09799756E-06 -4.00381510E-06 -5.00939843E-05 -1.24786662E-10  1.14595126E-10
  2.89838873E-02 -4.55404421E-06  4.23080409E-06 -1.10451397E-04  1.70074206E-02
 -3.22079193E-04  4.55318647E-05 -2.04129009E-02  2.52360637E-05  6.65580749E-03
  1.59715797E+00 -3.99587562E-03  1.10663659E-04 -1.70094936E-02  3.23988656E-04
  4.55549286E-05 -2.52580134E-05  2.04085754E-02  6.65598533E-03  3.99674601E-03
 -1.59702280E+00  1.11308312E-04 -1.70851272E-02  3.30685259E-04  4.54856935E-05
  2.52979635E-05 -2.04085706E-02  6.66310144E-03 -4.01469682E-03  1.59702123E+00
 -4.72181449E-02  5.70556747E+00 -3.83215453E-01 -6.20677049E-03  9.09855496E-03
 -1.52606678E-03  4.80960265E-01 -1.85224605E-01  1.44979719E+00 -1.64122355E-06
 -9.13036193E-05 -2.40499320E-05  2.39057092E-08 -1.96172773E-02  3.72049792E-03
 -4.43756670E-05 -1.46746761E+00  2.82053713E-01  4.72209422E-02 -5.70558071E+00
  3.83229651E-01  6.20634667E-03  9.09862638E-03 -1.52626286E-03 -4.80957483E-01
 -1.85230443E-01  1.44980983E+00 -2.48678828E-01  3.00606826E+01 -2.01704253E+00
  3.26681171E-02  8.13878394E-03 -1.71142873E-03 -2.52525439E+00 -7.64428295E+00
  3.69448887E-02  2.48679446E-01 -3.00605779E+01  2.01705303E+00 -3.26679254E-02
  8.13870777E-03 -1.71137379E-03  2.52522925E+00 -7.64426387E+00  3.69405503E-02
  2.48667585E-01 -3.00606381E+01  2.01692172E+00  3.26654461E-02  1.74167942E-03
  8.15594271E-03 -2.52385723E+00 -3.31888771E-02 -7.64488090E+00 -2.61168409E-06
 -1.45137325E-04 -3.82413508E-05 -1.72081480E-08 -3.72154876E-03 -1.96181821E-02
  3.24452874E-05 -2.74240857E-01 -1.46539215E+00 -2.48665664E-01  3.00607539E+01
 -2.01690344E+00 -3.26658511E-02  1.74165026E-03  8.15594626E-03  2.52388768E+00
 -3.31866504E-02 -7.64489755E+00 -4.71136431E-02  5.69806217E+00 -3.81915645E-01
  6.18600699E-03  1.56446413E-03  9.10646732E-03 -4.76747609E-01 -1.45019310E+00
 -1.84528575E-01  4.71171598E-02 -5.69803261E+00  3.81936638E-01 -6.18543257E-03
  1.56465936E-03  9.10641657E-03  4.76733511E-01 -1.45019961E+00 -1.84524365E-01
 -2.35352407E-01 -4.22779781E+00 -1.31365147E+00  4.36660658E-02 -2.60435374E-06
 -1.06992369E-02 -2.12440283E+00  5.15789914E-04 -1.09460404E-02  4.60083100E-01
  1.70116708E+01  5.08761479E+00 -6.98783620E-06 -1.68321683E-07 -1.81057847E-07
  2.73394375E-03 -1.47199962E-06 -1.62256047E-06 -2.35355255E-01 -4.22741322E+00
 -1.31366293E+00  4.36655883E-02  2.75168417E-06  1.06991351E-02 -2.12436365E+00
 -5.18176084E-04  1.08523477E-02 -2.35288834E-01 -4.23151518E+00 -1.31369082E+00
 -4.36668318E-02  1.06913860E-02  2.76644294E-06  2.12589461E+00  1.17923864E-02
 -5.19021010E-04 -2.35286189E-01 -4.23187242E+00 -1.31368023E+00 -4.36672753E-02
 -1.06914818E-02 -2.60892954E-06  2.12593103E+00 -1.18793651E-02  5.16494754E-04
  1.94521018E-02  2.75458169E+00 -5.07637748E-01 -2.17692655E-02  3.16758377E-02
  2.30526317E-02  3.20374894E+00 -7.01240102E-01 -7.29985611E-01  3.00527365E-06
  1.05025092E-04  1.44172645E-05  2.43837489E-09  1.91673484E-03  1.88956242E-03
 -1.78725013E-06  4.08061192E+00  4.01564977E+00 -1.94498657E-02 -2.75463951E+00
  5.07631205E-01  2.17696989E-02  3.16757368E-02  2.30524980E-02 -3.20377497E+00
 -7.01231856E-01 -7.29962823E-01 -1.97617117E-02 -2.79635504E+00  5.15759235E-01